 Gaussian 16, Revision B.01,
 Gaussian 16:  EM64M-G16RevB.01 20-Dec-2017

 ---------------------------------------------
 # M062X def2TZVP opt(noeigen,calcfc,z-matrix)
 ---------------------------------------------

 -----------
 TiO21aHCOOH
 -----------
 Symbolic Z-matrix:
 Charge =  0 Multiplicity = 1

 SCF Done:  E(RM062X) =  -1189.80369119     A.U. after   16 cycles

  Exact polarizability:   0.000   0.000   0.000   0.000   0.000   0.000
 Approx polarizability:  70.156  10.172  69.878   0.008  -0.000  53.251

 SCF Done:  E(RM062X) =  -1189.82357460     A.U. after   14 cycles
 SCF Done:  E(RM062X) =  -1189.82566114     A.U. after   13 cycles
 SCF Done:  E(RM062X) =  -1189.82570605     A.U. after   14 cycles
 SCF Done:  E(RM062X) =  -1189.82581347     A.U. after   14 cycles
 SCF Done:  E(RM062X) =  -1189.82593748     A.U. after   13 cycles
 SCF Done:  E(RM062X) =  -1189.82593829     A.U. after   10 cycles
 Optimization completed.
    -- Stationary point found.

                         Standard orientation:
 ---------------------------------------------------------------------
 Center     Atomic      Atomic             Coordinates (Angstroms)
 Number     Number       Type             X           Y           Z
 ---------------------------------------------------------------------
      1         22           0        0.461282    0.097250    0.005153
      2          8           0        1.052006    1.571619   -0.011222
      3          8           0        1.693328   -1.232813    0.003940
      4          1           0        2.650958   -1.267428   -0.004484
      5          6           0       -1.900249   -0.198788   -0.003711
      6          8           0       -1.268046   -0.138530   -1.095817
      7          8           0       -1.278463   -0.120978    1.093255
      8          1           0       -2.988270   -0.313727   -0.007855
 ---------------------------------------------------------------------

 The electronic state is 1-A.
 Alpha  occ. eigenvalues -- -180.47818 -20.46570 -19.67612 -19.67610 -19.63318
 Alpha  occ. eigenvalues --  -19.62680 -17.16207 -17.16188 -17.15692 -10.71900
 Alpha  occ. eigenvalues --   -2.62414  -1.70918  -1.69328  -1.68778  -1.26609
 Alpha  occ. eigenvalues --   -1.15651  -1.09593  -0.99751  -0.73645  -0.63153
 Alpha  occ. eigenvalues --   -0.60036  -0.58409  -0.57400  -0.45214  -0.44577
 Alpha  occ. eigenvalues --   -0.44178  -0.43878  -0.41693  -0.41257  -0.40696
 Alpha  occ. eigenvalues --   -0.40671
 Alpha virt. eigenvalues --   -0.05228  -0.00729  -0.00094   0.01729   0.02707
 Alpha virt. eigenvalues --    0.04443   0.06048   0.08981   0.09326   0.11652
 Alpha virt. eigenvalues --    0.12223   0.13301   0.14159   0.14185   0.14259

 Mulliken charges:
               1
     1  Ti   1.384485
     2  O   -0.551687
     3  O   -0.793253
     4  H    0.346314
     5  C    0.375947
     6  O   -0.455932
     7  O   -0.457525
     8  H    0.151650
 Sum of Mulliken charges =  -0.00000

 Dipole moment (field-independent basis, Debye):
    X=             -1.0213    Y=             -1.8031    Z=              0.0432  Tot=              2.0727
 Quadrupole moment (field-independent basis, Debye-Ang):
   XX=            -34.0185   YY=            -50.3912   ZZ=            -46.3919
   XY=             -2.7710   XZ=              0.0614   YZ=              0.0394

 Normal termination of Gaussian 16 at Tue Jul 24 16:39:01 2018.
